MODEL 1
REMARK VINA RESULT:    -2.255      0.000      0.000
REMARK INTER + INTRA:          -1.050
REMARK INTER:                  -4.825
REMARK INTRA:                   3.775
REMARK UNBOUND:                 3.775
REMARK  Name = 
REMARK  27 active torsions:
REMARK  status: ('A' for Active; 'I' for Inactive)
REMARK    1  A    between atoms: C_1  and  C_2
REMARK    2  A    between atoms: C_4  and  O_5
REMARK    3  A    between atoms: O_5  and  C_6
REMARK    4  A    between atoms: C_7  and  O_8
REMARK    5  A    between atoms: C_9  and  O_10
REMARK    6  A    between atoms: C_11  and  O_12
REMARK    7  A    between atoms: O_12  and  C_13
REMARK    8  A    between atoms: C_13  and  C_14
REMARK    9  A    between atoms: C_13  and  C_20
REMARK   10  A    between atoms: C_14  and  O_15
REMARK   11  A    between atoms: C_14  and  C_16
REMARK   12  A    between atoms: C_16  and  O_17
REMARK   13  A    between atoms: C_16  and  C_18
REMARK   14  A    between atoms: C_20  and  O_21
REMARK   15  A    between atoms: C_20  and  C_22
REMARK   16  A    between atoms: C_22  and  O_23
REMARK   17  A    between atoms: C_25  and  C_26
REMARK   18  A    between atoms: C_26  and  O_27
REMARK   19  A    between atoms: C_28  and  O_29
REMARK   20  A    between atoms: C_30  and  O_31
REMARK   21  A    between atoms: C_32  and  N_33
REMARK   22  A    between atoms: N_33  and  C_34
REMARK   23  A    between atoms: C_36  and  C_37
REMARK   24  A    between atoms: C_37  and  O_38
REMARK   25  A    between atoms: C_39  and  O_40
REMARK   26  A    between atoms: C_41  and  O_42
REMARK   27  A    between atoms: C_43  and  O_44
REMARK                            x       y       z     vdW  Elec       q    Type
REMARK                         _______ _______ _______ _____ _____    ______ ____
ROOT
ATOM      1  O   UNL     1      13.563   3.606  39.496  0.00  0.00    +0.000 OA
ENDROOT
BRANCH   1   5
ATOM      2  C   UNL     1      15.997   3.097  43.373  0.00  0.00    +0.000 C 
ATOM      3  C   UNL     1      15.990   3.736  42.032  0.00  0.00    +0.000 C 
ATOM      4  O   UNL     1      14.832   3.402  41.329  0.00  0.00    +0.000 OA
ATOM      5  C   UNL     1      14.822   3.867  40.030  0.00  0.00    +0.000 C 
ATOM      6  C   UNL     1      15.073   5.353  39.908  0.00  0.00    +0.000 C 
ATOM      7  C   UNL     1      16.359   5.702  40.737  0.00  0.00    +0.000 C 
ATOM      8  C   UNL     1      15.974   5.278  42.118  0.00  0.00    +0.000 C 
BRANCH   8   9
ATOM      9  N   UNL     1      16.613   5.698  43.238  0.00  0.00    +0.000 NA
ATOM     10  H   UNL     1      15.958   6.003  44.005  0.00  0.00    +0.000 HD
BRANCH   9  11
ATOM     11  C   UNL     1      17.925   5.578  43.631  0.00  0.00    +0.000 C 
ATOM     12  C   UNL     1      18.047   5.233  45.073  0.00  0.00    +0.000 C 
ATOM     13  C   UNL     1      18.942   4.392  45.560  0.00  0.00    +0.000 C 
ATOM     14  C   UNL     1      19.862   3.724  44.625  0.00  0.00    +0.000 C 
ATOM     15  C   UNL     1      18.955   3.309  43.442  0.00  0.00    +0.000 C 
ATOM     16  C   UNL     1      18.640   4.598  42.734  0.00  0.00    +0.000 C 
BRANCH  16  17
ATOM     17  O   UNL     1      19.808   5.149  42.189  0.00  0.00    +0.000 OA
ATOM     18  H   UNL     1      19.736   6.132  42.337  0.00  0.00    +0.000 HD
ENDBRANCH  16  17
BRANCH  15  19
ATOM     19  O   UNL     1      19.573   2.410  42.613  0.00  0.00    +0.000 OA
ATOM     20  H   UNL     1      20.062   2.908  41.910  0.00  0.00    +0.000 HD
ENDBRANCH  15  19
BRANCH  14  21
ATOM     21  O   UNL     1      20.530   2.641  45.144  0.00  0.00    +0.000 OA
ATOM     22  H   UNL     1      21.253   2.396  44.522  0.00  0.00    +0.000 HD
ENDBRANCH  14  21
BRANCH  13  23
ATOM     23  C   UNL     1      18.995   4.112  47.001  0.00  0.00    +0.000 C 
BRANCH  23  24
ATOM     24  O   UNL     1      20.317   4.059  47.471  0.00  0.00    +0.000 OA
ATOM     25  H   UNL     1      20.914   3.585  46.825  0.00  0.00    +0.000 HD
ENDBRANCH  23  24
ENDBRANCH  13  23
ENDBRANCH   9  11
ENDBRANCH   8   9
BRANCH   7  26
ATOM     26  O   UNL     1      17.304   4.875  40.124  0.00  0.00    +0.000 OA
ATOM     27  H   UNL     1      18.216   5.140  40.149  0.00  0.00    +0.000 HD
ENDBRANCH   7  26
BRANCH   6  28
ATOM     28  O   UNL     1      14.028   6.111  40.369  0.00  0.00    +0.000 OA
ATOM     29  H   UNL     1      13.676   6.756  39.707  0.00  0.00    +0.000 HD
ENDBRANCH   6  28
ENDBRANCH   1   5
BRANCH   1  30
ATOM     30  C   UNL     1      13.034   2.419  39.952  0.00  0.00    +0.000 C 
ATOM     31  C   UNL     1      12.029   2.701  41.019  0.00  0.00    +0.000 C 
ATOM     32  C   UNL     1      12.532   2.677  42.423  0.00  0.00    +0.000 C 
ATOM     33  C   UNL     1      13.548   1.629  42.643  0.00  0.00    +0.000 C 
ATOM     34  O   UNL     1      13.675   0.791  41.568  0.00  0.00    +0.000 OA
ATOM     35  C   UNL     1      14.178   1.573  40.494  0.00  0.00    +0.000 C 
BRANCH  32  36
ATOM     36  O   UNL     1      11.397   2.510  43.241  0.00  0.00    +0.000 OA
ATOM     37  H   UNL     1      10.644   3.068  42.911  0.00  0.00    +0.000 HD
ENDBRANCH  32  36
BRANCH  31  38
ATOM     38  O   UNL     1      11.371   3.918  40.829  0.00  0.00    +0.000 OA
ATOM     39  H   UNL     1      11.979   4.624  40.512  0.00  0.00    +0.000 HD
ENDBRANCH  31  38
BRANCH  35  40
ATOM     40  C   UNL     1      14.707   0.631  39.472  0.00  0.00    +0.000 C 
BRANCH  40  41
ATOM     41  O   UNL     1      15.069  -0.576  40.077  0.00  0.00    +0.000 OA
ATOM     42  H   UNL     1      14.398  -1.274  39.952  0.00  0.00    +0.000 HD
ENDBRANCH  40  41
ENDBRANCH  35  40
BRANCH  33  43
ATOM     43  O   UNL     1      13.379   0.929  43.840  0.00  0.00    +0.000 OA
BRANCH  43  44
ATOM     44  C   UNL     1      13.519  -0.472  43.660  0.00  0.00    +0.000 C 
BRANCH  44  45
ATOM     45  C   UNL     1      12.209  -1.031  44.123  0.00  0.00    +0.000 C 
BRANCH  45  46
ATOM     46  O   UNL     1      11.414  -0.221  44.873  0.00  0.00    +0.000 OA
ATOM     47  H   UNL     1      10.829  -0.759  45.450  0.00  0.00    +0.000 HD
ENDBRANCH  45  46
BRANCH  45  48
ATOM     48  C   UNL     1      11.372  -1.545  42.952  0.00  0.00    +0.000 C 
BRANCH  48  49
ATOM     49  O   UNL     1      11.429  -0.552  41.970  0.00  0.00    +0.000 OA
ATOM     50  H   UNL     1      10.578  -0.009  41.937  0.00  0.00    +0.000 HD
ENDBRANCH  48  49
ENDBRANCH  45  48
ENDBRANCH  44  45
BRANCH  44  51
ATOM     51  C   UNL     1      14.729  -0.940  44.434  0.00  0.00    +0.000 C 
BRANCH  51  52
ATOM     52  O   UNL     1      14.929   0.044  45.481  0.00  0.00    +0.000 OA
ATOM     53  H   UNL     1      14.972   0.928  45.073  0.00  0.00    +0.000 HD
ENDBRANCH  51  52
BRANCH  51  54
ATOM     54  C   UNL     1      16.008  -0.882  43.641  0.00  0.00    +0.000 C 
BRANCH  54  55
ATOM     55  C   UNL     1      17.149  -1.452  44.431  0.00  0.00    +0.000 C 
ATOM     56  O   UNL     1      18.282  -1.197  44.061  0.00  0.00    +0.000 OA
ENDBRANCH  54  55
BRANCH  54  57
ATOM     57  O   UNL     1      15.955  -1.427  42.379  0.00  0.00    +0.000 OA
ATOM     58  H   UNL     1      16.122  -0.729  41.703  0.00  0.00    +0.000 HD
ENDBRANCH  54  57
ENDBRANCH  51  54
ENDBRANCH  44  51
ENDBRANCH  43  44
ENDBRANCH  33  43
ENDBRANCH   1  30
TORSDOF 26
ENDMDL
MODEL 2
REMARK VINA RESULT:    -0.714      2.260      4.561
REMARK INTER + INTRA:           2.247
REMARK INTER:                  -0.213
REMARK INTRA:                   2.460
REMARK UNBOUND:                 3.775
REMARK  Name = 
REMARK  27 active torsions:
REMARK  status: ('A' for Active; 'I' for Inactive)
REMARK    1  A    between atoms: C_1  and  C_2
REMARK    2  A    between atoms: C_4  and  O_5
REMARK    3  A    between atoms: O_5  and  C_6
REMARK    4  A    between atoms: C_7  and  O_8
REMARK    5  A    between atoms: C_9  and  O_10
REMARK    6  A    between atoms: C_11  and  O_12
REMARK    7  A    between atoms: O_12  and  C_13
REMARK    8  A    between atoms: C_13  and  C_14
REMARK    9  A    between atoms: C_13  and  C_20
REMARK   10  A    between atoms: C_14  and  O_15
REMARK   11  A    between atoms: C_14  and  C_16
REMARK   12  A    between atoms: C_16  and  O_17
REMARK   13  A    between atoms: C_16  and  C_18
REMARK   14  A    between atoms: C_20  and  O_21
REMARK   15  A    between atoms: C_20  and  C_22
REMARK   16  A    between atoms: C_22  and  O_23
REMARK   17  A    between atoms: C_25  and  C_26
REMARK   18  A    between atoms: C_26  and  O_27
REMARK   19  A    between atoms: C_28  and  O_29
REMARK   20  A    between atoms: C_30  and  O_31
REMARK   21  A    between atoms: C_32  and  N_33
REMARK   22  A    between atoms: N_33  and  C_34
REMARK   23  A    between atoms: C_36  and  C_37
REMARK   24  A    between atoms: C_37  and  O_38
REMARK   25  A    between atoms: C_39  and  O_40
REMARK   26  A    between atoms: C_41  and  O_42
REMARK   27  A    between atoms: C_43  and  O_44
REMARK                            x       y       z     vdW  Elec       q    Type
REMARK                         _______ _______ _______ _____ _____    ______ ____
ROOT
ATOM      1  O   UNL     1      19.198   1.488  39.829  0.00  0.00    +0.000 OA
ENDROOT
BRANCH   1   5
ATOM      2  C   UNL     1      16.565   4.055  42.604  0.00  0.00    +0.000 C 
ATOM      3  C   UNL     1      17.807   3.242  42.536  0.00  0.00    +0.000 C 
ATOM      4  O   UNL     1      17.976   2.698  41.262  0.00  0.00    +0.000 OA
ATOM      5  C   UNL     1      19.047   1.835  41.169  0.00  0.00    +0.000 C 
ATOM      6  C   UNL     1      20.357   2.428  41.639  0.00  0.00    +0.000 C 
ATOM      7  C   UNL     1      20.125   3.062  43.056  0.00  0.00    +0.000 C 
ATOM      8  C   UNL     1      19.075   4.090  42.779  0.00  0.00    +0.000 C 
BRANCH   8   9
ATOM      9  N   UNL     1      18.802   5.127  43.609  0.00  0.00    +0.000 NA
ATOM     10  H   UNL     1      18.856   6.067  43.136  0.00  0.00    +0.000 HD
BRANCH   9  11
ATOM     11  C   UNL     1      18.250   5.158  44.868  0.00  0.00    +0.000 C 
ATOM     12  C   UNL     1      17.133   4.186  45.011  0.00  0.00    +0.000 C 
ATOM     13  C   UNL     1      16.913   3.466  46.097  0.00  0.00    +0.000 C 
ATOM     14  C   UNL     1      17.841   3.602  47.232  0.00  0.00    +0.000 C 
ATOM     15  C   UNL     1      19.239   3.618  46.570  0.00  0.00    +0.000 C 
ATOM     16  C   UNL     1      19.329   4.964  45.904  0.00  0.00    +0.000 C 
BRANCH  16  17
ATOM     17  O   UNL     1      19.313   5.982  46.867  0.00  0.00    +0.000 OA
ATOM     18  H   UNL     1      18.708   5.659  47.590  0.00  0.00    +0.000 HD
ENDBRANCH  16  17
BRANCH  15  19
ATOM     19  O   UNL     1      20.243   3.434  47.485  0.00  0.00    +0.000 OA
ATOM     20  H   UNL     1      21.063   3.152  47.008  0.00  0.00    +0.000 HD
ENDBRANCH  15  19
BRANCH  14  21
ATOM     21  O   UNL     1      17.750   2.608  48.177  0.00  0.00    +0.000 OA
ATOM     22  H   UNL     1      18.405   2.796  48.888  0.00  0.00    +0.000 HD
ENDBRANCH  14  21
BRANCH  13  23
ATOM     23  C   UNL     1      15.781   2.530  46.155  0.00  0.00    +0.000 C 
BRANCH  23  24
ATOM     24  O   UNL     1      14.865   2.886  47.159  0.00  0.00    +0.000 OA
ATOM     25  H   UNL     1      14.451   3.776  46.973  0.00  0.00    +0.000 HD
ENDBRANCH  23  24
ENDBRANCH  13  23
ENDBRANCH   9  11
ENDBRANCH   8   9
BRANCH   7  26
ATOM     26  O   UNL     1      19.670   1.953  43.774  0.00  0.00    +0.000 OA
ATOM     27  H   UNL     1      18.869   1.530  43.487  0.00  0.00    +0.000 HD
ENDBRANCH   7  26
BRANCH   6  28
ATOM     28  O   UNL     1      20.840   3.393  40.794  0.00  0.00    +0.000 OA
ATOM     29  H   UNL     1      21.415   4.064  41.237  0.00  0.00    +0.000 HD
ENDBRANCH   6  28
ENDBRANCH   1   5
BRANCH   1  30
ATOM     30  C   UNL     1      18.409   0.417  39.471  0.00  0.00    +0.000 C 
ATOM     31  C   UNL     1      16.973   0.768  39.672  0.00  0.00    +0.000 C 
ATOM     32  C   UNL     1      16.378   0.391  40.987  0.00  0.00    +0.000 C 
ATOM     33  C   UNL     1      16.885  -0.902  41.487  0.00  0.00    +0.000 C 
ATOM     34  O   UNL     1      17.646  -1.559  40.558  0.00  0.00    +0.000 OA
ATOM     35  C   UNL     1      18.805  -0.768  40.341  0.00  0.00    +0.000 C 
BRANCH  32  36
ATOM     36  O   UNL     1      14.982   0.388  40.797  0.00  0.00    +0.000 OA
ATOM     37  H   UNL     1      14.685  -0.474  40.401  0.00  0.00    +0.000 HD
ENDBRANCH  32  36
BRANCH  31  38
ATOM     38  O   UNL     1      16.719   2.127  39.470  0.00  0.00    +0.000 OA
ATOM     39  H   UNL     1      17.286   2.510  38.762  0.00  0.00    +0.000 HD
ENDBRANCH  31  38
BRANCH  35  40
ATOM     40  C   UNL     1      19.814  -1.635  39.676  0.00  0.00    +0.000 C 
BRANCH  40  41
ATOM     41  O   UNL     1      21.051  -0.983  39.636  0.00  0.00    +0.000 OA
ATOM     42  H   UNL     1      21.763  -1.504  40.053  0.00  0.00    +0.000 HD
ENDBRANCH  40  41
ENDBRANCH  35  40
BRANCH  33  43
ATOM     43  O   UNL     1      15.890  -1.720  42.028  0.00  0.00    +0.000 OA
BRANCH  43  44
ATOM     44  C   UNL     1      15.343  -1.171  43.218  0.00  0.00    +0.000 C 
BRANCH  44  45
ATOM     45  C   UNL     1      16.297  -1.605  44.290  0.00  0.00    +0.000 C 
BRANCH  45  46
ATOM     46  O   UNL     1      17.473  -0.928  44.390  0.00  0.00    +0.000 OA
ATOM     47  H   UNL     1      17.327  -0.051  44.806  0.00  0.00    +0.000 HD
ENDBRANCH  45  46
BRANCH  45  48
ATOM     48  C   UNL     1      15.637  -1.591  45.668  0.00  0.00    +0.000 C 
BRANCH  48  49
ATOM     49  O   UNL     1      16.509  -0.893  46.508  0.00  0.00    +0.000 OA
ATOM     50  H   UNL     1      17.448  -0.870  46.137  0.00  0.00    +0.000 HD
ENDBRANCH  48  49
ENDBRANCH  45  48
ENDBRANCH  44  45
BRANCH  44  51
ATOM     51  C   UNL     1      13.927  -1.673  43.375  0.00  0.00    +0.000 C 
BRANCH  51  52
ATOM     52  O   UNL     1      13.330  -1.581  42.056  0.00  0.00    +0.000 OA
ATOM     53  H   UNL     1      12.665  -2.287  41.965  0.00  0.00    +0.000 HD
ENDBRANCH  51  52
BRANCH  51  54
ATOM     54  C   UNL     1      13.062  -0.776  44.221  0.00  0.00    +0.000 C 
BRANCH  54  55
ATOM     55  C   UNL     1      13.392   0.667  43.974  0.00  0.00    +0.000 C 
ATOM     56  O   UNL     1      13.243   1.100  42.844  0.00  0.00    +0.000 OA
ENDBRANCH  54  55
BRANCH  54  57
ATOM     57  O   UNL     1      11.707  -0.999  44.137  0.00  0.00    +0.000 OA
ATOM     58  H   UNL     1      11.487  -1.884  44.511  0.00  0.00    +0.000 HD
ENDBRANCH  54  57
ENDBRANCH  51  54
ENDBRANCH  44  51
ENDBRANCH  43  44
ENDBRANCH  33  43
ENDBRANCH   1  30
TORSDOF 26
ENDMDL
MODEL 3
REMARK VINA RESULT:     0.288      1.578      2.429
REMARK INTER + INTRA:           4.391
REMARK INTER:                   1.002
REMARK INTRA:                   3.388
REMARK UNBOUND:                 3.775
REMARK  Name = 
REMARK  27 active torsions:
REMARK  status: ('A' for Active; 'I' for Inactive)
REMARK    1  A    between atoms: C_1  and  C_2
REMARK    2  A    between atoms: C_4  and  O_5
REMARK    3  A    between atoms: O_5  and  C_6
REMARK    4  A    between atoms: C_7  and  O_8
REMARK    5  A    between atoms: C_9  and  O_10
REMARK    6  A    between atoms: C_11  and  O_12
REMARK    7  A    between atoms: O_12  and  C_13
REMARK    8  A    between atoms: C_13  and  C_14
REMARK    9  A    between atoms: C_13  and  C_20
REMARK   10  A    between atoms: C_14  and  O_15
REMARK   11  A    between atoms: C_14  and  C_16
REMARK   12  A    between atoms: C_16  and  O_17
REMARK   13  A    between atoms: C_16  and  C_18
REMARK   14  A    between atoms: C_20  and  O_21
REMARK   15  A    between atoms: C_20  and  C_22
REMARK   16  A    between atoms: C_22  and  O_23
REMARK   17  A    between atoms: C_25  and  C_26
REMARK   18  A    between atoms: C_26  and  O_27
REMARK   19  A    between atoms: C_28  and  O_29
REMARK   20  A    between atoms: C_30  and  O_31
REMARK   21  A    between atoms: C_32  and  N_33
REMARK   22  A    between atoms: N_33  and  C_34
REMARK   23  A    between atoms: C_36  and  C_37
REMARK   24  A    between atoms: C_37  and  O_38
REMARK   25  A    between atoms: C_39  and  O_40
REMARK   26  A    between atoms: C_41  and  O_42
REMARK   27  A    between atoms: C_43  and  O_44
REMARK                            x       y       z     vdW  Elec       q    Type
REMARK                         _______ _______ _______ _____ _____    ______ ____
ROOT
ATOM      1  O   UNL     1      14.666   4.007  40.043  0.00  0.00    +0.000 OA
ENDROOT
BRANCH   1   5
ATOM      2  C   UNL     1      17.857   2.645  43.072  0.00  0.00    +0.000 C 
ATOM      3  C   UNL     1      17.554   3.634  42.006  0.00  0.00    +0.000 C 
ATOM      4  O   UNL     1      16.288   3.409  41.464  0.00  0.00    +0.000 OA
ATOM      5  C   UNL     1      15.998   4.219  40.386  0.00  0.00    +0.000 C 
ATOM      6  C   UNL     1      16.170   5.696  40.665  0.00  0.00    +0.000 C 
ATOM      7  C   UNL     1      17.586   5.911  41.305  0.00  0.00    +0.000 C 
ATOM      8  C   UNL     1      17.507   5.080  42.545  0.00  0.00    +0.000 C 
BRANCH   8   9
ATOM      9  N   UNL     1      18.347   5.222  43.600  0.00  0.00    +0.000 NA
ATOM     10  H   UNL     1      19.295   5.599  43.333  0.00  0.00    +0.000 HD
BRANCH   9  11
ATOM     11  C   UNL     1      18.114   5.188  44.954  0.00  0.00    +0.000 C 
ATOM     12  C   UNL     1      16.977   4.293  45.302  0.00  0.00    +0.000 C 
ATOM     13  C   UNL     1      16.953   3.502  46.360  0.00  0.00    +0.000 C 
ATOM     14  C   UNL     1      18.132   3.472  47.242  0.00  0.00    +0.000 C 
ATOM     15  C   UNL     1      19.329   3.439  46.262  0.00  0.00    +0.000 C 
ATOM     16  C   UNL     1      19.384   4.826  45.683  0.00  0.00    +0.000 C 
BRANCH  16  17
ATOM     17  O   UNL     1      19.691   5.758  46.685  0.00  0.00    +0.000 OA
ATOM     18  H   UNL     1      19.577   5.272  47.548  0.00  0.00    +0.000 HD
ENDBRANCH  16  17
BRANCH  15  19
ATOM     19  O   UNL     1      20.499   3.104  46.893  0.00  0.00    +0.000 OA
ATOM     20  H   UNL     1      21.205   3.740  46.616  0.00  0.00    +0.000 HD
ENDBRANCH  15  19
BRANCH  14  21
ATOM     21  O   UNL     1      18.174   2.411  48.115  0.00  0.00    +0.000 OA
ATOM     22  H   UNL     1      18.354   1.592  47.597  0.00  0.00    +0.000 HD
ENDBRANCH  14  21
BRANCH  13  23
ATOM     23  C   UNL     1      15.785   2.653  46.631  0.00  0.00    +0.000 C 
BRANCH  23  24
ATOM     24  O   UNL     1      16.157   1.317  46.856  0.00  0.00    +0.000 OA
ATOM     25  H   UNL     1      15.374   0.765  47.137  0.00  0.00    +0.000 HD
ENDBRANCH  23  24
ENDBRANCH  13  23
ENDBRANCH   9  11
ENDBRANCH   8   9
BRANCH   7  26
ATOM     26  O   UNL     1      18.412   5.382  40.310  0.00  0.00    +0.000 OA
ATOM     27  H   UNL     1      18.248   5.634  39.409  0.00  0.00    +0.000 HD
ENDBRANCH   7  26
BRANCH   6  28
ATOM     28  O   UNL     1      15.217   6.194  41.515  0.00  0.00    +0.000 OA
ATOM     29  H   UNL     1      14.409   5.628  41.590  0.00  0.00    +0.000 HD
ENDBRANCH   6  28
ENDBRANCH   1   5
BRANCH   1  30
ATOM     30  C   UNL     1      14.461   2.772  39.470  0.00  0.00    +0.000 C 
ATOM     31  C   UNL     1      13.018   2.406  39.580  0.00  0.00    +0.000 C 
ATOM     32  C   UNL     1      12.631   1.593  40.769  0.00  0.00    +0.000 C 
ATOM     33  C   UNL     1      13.661   0.600  41.135  0.00  0.00    +0.000 C 
ATOM     34  O   UNL     1      14.658   0.514  40.202  0.00  0.00    +0.000 OA
ATOM     35  C   UNL     1      15.334   1.764  40.205  0.00  0.00    +0.000 C 
BRANCH  32  36
ATOM     36  O   UNL     1      11.395   0.998  40.449  0.00  0.00    +0.000 OA
ATOM     37  H   UNL     1      10.643   1.588  40.719  0.00  0.00    +0.000 HD
ENDBRANCH  32  36
BRANCH  31  38
ATOM     38  O   UNL     1      12.177   3.521  39.541  0.00  0.00    +0.000 OA
ATOM     39  H   UNL     1      12.187   4.023  40.387  0.00  0.00    +0.000 HD
ENDBRANCH  31  38
BRANCH  35  40
ATOM     40  C   UNL     1      16.642   1.560  39.527  0.00  0.00    +0.000 C 
BRANCH  40  41
ATOM     41  O   UNL     1      17.411   0.637  40.242  0.00  0.00    +0.000 OA
ATOM     42  H   UNL     1      16.867  -0.052  40.670  0.00  0.00    +0.000 HD
ENDBRANCH  40  41
ENDBRANCH  35  40
BRANCH  33  43
ATOM     43  O   UNL     1      13.136  -0.652  41.464  0.00  0.00    +0.000 OA
BRANCH  43  44
ATOM     44  C   UNL     1      12.969  -0.805  42.866  0.00  0.00    +0.000 C 
BRANCH  44  45
ATOM     45  C   UNL     1      13.006   0.598  43.391  0.00  0.00    +0.000 C 
BRANCH  45  46
ATOM     46  O   UNL     1      12.082   0.938  44.330  0.00  0.00    +0.000 OA
ATOM     47  H   UNL     1      11.268   0.401  44.216  0.00  0.00    +0.000 HD
ENDBRANCH  45  46
BRANCH  45  48
ATOM     48  C   UNL     1      14.384   0.952  43.948  0.00  0.00    +0.000 C 
BRANCH  48  49
ATOM     49  O   UNL     1      14.623   2.278  43.575  0.00  0.00    +0.000 OA
ATOM     50  H   UNL     1      15.514   2.608  43.918  0.00  0.00    +0.000 HD
ENDBRANCH  48  49
ENDBRANCH  45  48
ENDBRANCH  44  45
BRANCH  44  51
ATOM     51  C   UNL     1      14.055  -1.717  43.385  0.00  0.00    +0.000 C 
BRANCH  51  52
ATOM     52  O   UNL     1      13.981  -1.630  44.832  0.00  0.00    +0.000 OA
ATOM     53  H   UNL     1      13.312  -2.264  45.148  0.00  0.00    +0.000 HD
ENDBRANCH  51  52
BRANCH  51  54
ATOM     54  C   UNL     1      15.446  -1.234  43.070  0.00  0.00    +0.000 C 
BRANCH  54  55
ATOM     55  C   UNL     1      16.397  -1.595  44.173  0.00  0.00    +0.000 C 
ATOM     56  O   UNL     1      16.756  -0.709  44.928  0.00  0.00    +0.000 OA
ENDBRANCH  54  55
BRANCH  54  57
ATOM     57  O   UNL     1      15.944  -1.605  41.842  0.00  0.00    +0.000 OA
ATOM     58  H   UNL     1      16.787  -2.103  41.956  0.00  0.00    +0.000 HD
ENDBRANCH  54  57
ENDBRANCH  51  54
ENDBRANCH  44  51
ENDBRANCH  43  44
ENDBRANCH  33  43
ENDBRANCH   1  30
TORSDOF 26
ENDMDL
