MODEL 1
REMARK VINA RESULT:    -7.074      0.000      0.000
REMARK INTER + INTRA:          -9.249
REMARK INTER:                  -8.935
REMARK INTRA:                  -0.314
REMARK UNBOUND:                -0.314
REMARK  Name = 
REMARK  5 active torsions:
REMARK  status: ('A' for Active; 'I' for Inactive)
REMARK    1  A    between atoms: C_4  and  N_5
REMARK    2  A    between atoms: N_5  and  C_6
REMARK    3  A    between atoms: N_12  and  C_13
REMARK    4  A    between atoms: C_16  and  C_17
REMARK    5  A    between atoms: C_17  and  O_18
REMARK                            x       y       z     vdW  Elec       q    Type
REMARK                         _______ _______ _______ _____ _____    ______ ____
ROOT
ATOM      1  N   UNL     1      -7.453 -26.997  21.690  0.00  0.00    +0.000 N 
ATOM      2  C   UNL     1      -6.739 -26.259  22.674  0.00  0.00    +0.000 A 
ATOM      3  N   UNL     1      -7.264 -25.039  22.995  0.00  0.00    +0.000 NA
ATOM      4  C   UNL     1      -6.678 -24.249  23.911  0.00  0.00    +0.000 A 
ATOM      5  C   UNL     1      -5.531 -24.726  24.508  0.00  0.00    +0.000 A 
ATOM      6  N   UNL     1      -4.719 -24.224  25.427  0.00  0.00    +0.000 NA
ATOM      7  C   UNL     1      -3.730 -25.106  25.663  0.00  0.00    +0.000 A 
ATOM      8  N   UNL     1      -3.892 -26.196  24.893  0.00  0.00    +0.000 N 
ATOM      9  C   UNL     1      -5.004 -25.975  24.172  0.00  0.00    +0.000 A 
ATOM     10  N   UNL     1      -5.619 -26.724  23.257  0.00  0.00    +0.000 NA
ATOM     11  H   UNL     1      -7.442 -26.636  20.712  0.00  0.00    +0.000 HD
ATOM     12  H   UNL     1      -7.983 -27.870  21.890  0.00  0.00    +0.000 HD
ENDROOT
BRANCH   8  13
ATOM     13  C   UNL     1      -2.994 -27.321  24.916  0.00  0.00    +0.000 C 
ATOM     14  C   UNL     1      -2.211 -27.403  26.174  0.00  0.00    +0.000 C 
ATOM     15  C   UNL     1      -1.010 -27.905  25.922  0.00  0.00    +0.000 C 
ATOM     16  C   UNL     1      -0.903 -28.200  24.445  0.00  0.00    +0.000 C 
ATOM     17  C   UNL     1      -1.874 -27.173  23.897  0.00  0.00    +0.000 C 
BRANCH  16  18
ATOM     18  C   UNL     1       0.504 -27.987  23.952  0.00  0.00    +0.000 C 
BRANCH  18  19
ATOM     19  O   UNL     1       1.167 -27.238  24.922  0.00  0.00    +0.000 OA
ATOM     20  H   UNL     1       1.025 -26.291  24.718  0.00  0.00    +0.000 HD
ENDBRANCH  18  19
ENDBRANCH  16  18
ENDBRANCH   8  13
BRANCH   4  21
ATOM     21  N   UNL     1      -7.208 -22.974  24.259  0.00  0.00    +0.000 N 
ATOM     22  H   UNL     1      -7.266 -22.222  23.517  0.00  0.00    +0.000 HD
BRANCH  21  23
ATOM     23  C   UNL     1      -7.677 -22.629  25.561  0.00  0.00    +0.000 C 
ATOM     24  C   UNL     1      -6.849 -22.021  26.599  0.00  0.00    +0.000 C 
ATOM     25  C   UNL     1      -7.728 -21.125  25.819  0.00  0.00    +0.000 C 
ENDBRANCH  21  23
ENDBRANCH   4  21
TORSDOF 5
ENDMDL
MODEL 2
REMARK VINA RESULT:    -6.332      1.910      3.900
REMARK INTER + INTRA:          -8.311
REMARK INTER:                  -7.820
REMARK INTRA:                  -0.491
REMARK UNBOUND:                -0.314
REMARK  Name = 
REMARK  5 active torsions:
REMARK  status: ('A' for Active; 'I' for Inactive)
REMARK    1  A    between atoms: C_4  and  N_5
REMARK    2  A    between atoms: N_5  and  C_6
REMARK    3  A    between atoms: N_12  and  C_13
REMARK    4  A    between atoms: C_16  and  C_17
REMARK    5  A    between atoms: C_17  and  O_18
REMARK                            x       y       z     vdW  Elec       q    Type
REMARK                         _______ _______ _______ _____ _____    ______ ____
ROOT
ATOM      1  N   UNL     1      -6.750 -22.638  24.069  0.00  0.00    +0.000 N 
ATOM      2  C   UNL     1      -6.421 -24.012  23.911  0.00  0.00    +0.000 A 
ATOM      3  N   UNL     1      -7.346 -24.769  23.250  0.00  0.00    +0.000 NA
ATOM      4  C   UNL     1      -7.148 -26.081  23.039  0.00  0.00    +0.000 A 
ATOM      5  C   UNL     1      -5.975 -26.624  23.518  0.00  0.00    +0.000 A 
ATOM      6  N   UNL     1      -5.470 -27.848  23.487  0.00  0.00    +0.000 NA
ATOM      7  C   UNL     1      -4.276 -27.843  24.108  0.00  0.00    +0.000 A 
ATOM      8  N   UNL     1      -3.993 -26.606  24.551  0.00  0.00    +0.000 N 
ATOM      9  C   UNL     1      -5.036 -25.839  24.193  0.00  0.00    +0.000 A 
ATOM     10  N   UNL     1      -5.275 -24.542  24.379  0.00  0.00    +0.000 NA
ATOM     11  H   UNL     1      -7.535 -22.398  24.712  0.00  0.00    +0.000 HD
ATOM     12  H   UNL     1      -6.254 -21.862  23.583  0.00  0.00    +0.000 HD
ENDROOT
BRANCH   8  13
ATOM     13  C   UNL     1      -2.782 -26.276  25.257  0.00  0.00    +0.000 C 
ATOM     14  C   UNL     1      -1.676 -27.225  24.972  0.00  0.00    +0.000 C 
ATOM     15  C   UNL     1      -0.915 -27.361  26.048  0.00  0.00    +0.000 C 
ATOM     16  C   UNL     1      -1.469 -26.495  27.154  0.00  0.00    +0.000 C 
ATOM     17  C   UNL     1      -2.932 -26.464  26.759  0.00  0.00    +0.000 C 
BRANCH  16  18
ATOM     18  C   UNL     1      -1.247 -27.128  28.501  0.00  0.00    +0.000 C 
BRANCH  18  19
ATOM     19  O   UNL     1      -0.246 -28.086  28.341  0.00  0.00    +0.000 OA
ATOM     20  H   UNL     1      -0.516 -28.886  28.835  0.00  0.00    +0.000 HD
ENDBRANCH  18  19
ENDBRANCH  16  18
ENDBRANCH   8  13
BRANCH   4  21
ATOM     21  N   UNL     1      -8.100 -26.889  22.353  0.00  0.00    +0.000 N 
ATOM     22  H   UNL     1      -7.774 -27.496  21.551  0.00  0.00    +0.000 HD
BRANCH  21  23
ATOM     23  C   UNL     1      -9.489 -26.938  22.674  0.00  0.00    +0.000 C 
ATOM     24  C   UNL     1     -10.562 -26.971  21.684  0.00  0.00    +0.000 C 
ATOM     25  C   UNL     1     -10.161 -28.256  22.296  0.00  0.00    +0.000 C 
ENDBRANCH  21  23
ENDBRANCH   4  21
TORSDOF 5
ENDMDL
MODEL 3
REMARK VINA RESULT:    -6.228      2.886      6.428
REMARK INTER + INTRA:          -8.180
REMARK INTER:                  -7.594
REMARK INTRA:                  -0.586
REMARK UNBOUND:                -0.314
REMARK  Name = 
REMARK  5 active torsions:
REMARK  status: ('A' for Active; 'I' for Inactive)
REMARK    1  A    between atoms: C_4  and  N_5
REMARK    2  A    between atoms: N_5  and  C_6
REMARK    3  A    between atoms: N_12  and  C_13
REMARK    4  A    between atoms: C_16  and  C_17
REMARK    5  A    between atoms: C_17  and  O_18
REMARK                            x       y       z     vdW  Elec       q    Type
REMARK                         _______ _______ _______ _____ _____    ______ ____
ROOT
ATOM      1  N   UNL     1      -8.622 -26.168  20.697  0.00  0.00    +0.000 N 
ATOM      2  C   UNL     1      -7.701 -26.168  21.781  0.00  0.00    +0.000 A 
ATOM      3  N   UNL     1      -6.667 -27.055  21.677  0.00  0.00    +0.000 NA
ATOM      4  C   UNL     1      -5.733 -27.148  22.638  0.00  0.00    +0.000 A 
ATOM      5  C   UNL     1      -5.866 -26.312  23.727  0.00  0.00    +0.000 A 
ATOM      6  N   UNL     1      -5.147 -26.143  24.826  0.00  0.00    +0.000 NA
ATOM      7  C   UNL     1      -5.720 -25.185  25.578  0.00  0.00    +0.000 A 
ATOM      8  N   UNL     1      -6.825 -24.721  24.969  0.00  0.00    +0.000 N 
ATOM      9  C   UNL     1      -6.929 -25.409  23.821  0.00  0.00    +0.000 A 
ATOM     10  N   UNL     1      -7.832 -25.352  22.843  0.00  0.00    +0.000 NA
ATOM     11  H   UNL     1      -9.234 -27.004  20.581  0.00  0.00    +0.000 HD
ATOM     12  H   UNL     1      -8.718 -25.385  20.017  0.00  0.00    +0.000 HD
ENDROOT
BRANCH   8  13
ATOM     13  C   UNL     1      -7.659 -23.687  25.525  0.00  0.00    +0.000 C 
ATOM     14  C   UNL     1      -7.302 -22.334  25.028  0.00  0.00    +0.000 C 
ATOM     15  C   UNL     1      -7.519 -21.437  25.979  0.00  0.00    +0.000 C 
ATOM     16  C   UNL     1      -8.046 -22.141  27.206  0.00  0.00    +0.000 C 
ATOM     17  C   UNL     1      -7.422 -23.509  27.017  0.00  0.00    +0.000 C 
BRANCH  16  18
ATOM     18  C   UNL     1      -7.577 -21.459  28.464  0.00  0.00    +0.000 C 
BRANCH  18  19
ATOM     19  O   UNL     1      -6.418 -20.757  28.140  0.00  0.00    +0.000 OA
ATOM     20  H   UNL     1      -6.304 -20.045  28.800  0.00  0.00    +0.000 HD
ENDBRANCH  18  19
ENDBRANCH  16  18
ENDBRANCH   8  13
BRANCH   4  21
ATOM     21  N   UNL     1      -4.647 -28.066  22.551  0.00  0.00    +0.000 N 
ATOM     22  H   UNL     1      -4.802 -29.072  22.836  0.00  0.00    +0.000 HD
BRANCH  21  23
ATOM     23  C   UNL     1      -3.339 -27.720  22.098  0.00  0.00    +0.000 C 
ATOM     24  C   UNL     1      -2.250 -27.300  22.974  0.00  0.00    +0.000 C 
ATOM     25  C   UNL     1      -2.258 -28.708  22.526  0.00  0.00    +0.000 C 
ENDBRANCH  21  23
ENDBRANCH   4  21
TORSDOF 5
ENDMDL
MODEL 4
REMARK VINA RESULT:    -6.059      3.467      6.540
REMARK INTER + INTRA:          -7.967
REMARK INTER:                  -7.598
REMARK INTRA:                  -0.368
REMARK UNBOUND:                -0.314
REMARK  Name = 
REMARK  5 active torsions:
REMARK  status: ('A' for Active; 'I' for Inactive)
REMARK    1  A    between atoms: C_4  and  N_5
REMARK    2  A    between atoms: N_5  and  C_6
REMARK    3  A    between atoms: N_12  and  C_13
REMARK    4  A    between atoms: C_16  and  C_17
REMARK    5  A    between atoms: C_17  and  O_18
REMARK                            x       y       z     vdW  Elec       q    Type
REMARK                         _______ _______ _______ _____ _____    ______ ____
ROOT
ATOM      1  N   UNL     1      -5.952 -23.256  25.208  0.00  0.00    +0.000 N 
ATOM      2  C   UNL     1      -5.355 -24.498  24.856  0.00  0.00    +0.000 A 
ATOM      3  N   UNL     1      -4.136 -24.748  25.418  0.00  0.00    +0.000 NA
ATOM      4  C   UNL     1      -3.473 -25.888  25.162  0.00  0.00    +0.000 A 
ATOM      5  C   UNL     1      -4.078 -26.788  24.310  0.00  0.00    +0.000 A 
ATOM      6  N   UNL     1      -3.717 -27.978  23.852  0.00  0.00    +0.000 NA
ATOM      7  C   UNL     1      -4.681 -28.441  23.036  0.00  0.00    +0.000 A 
ATOM      8  N   UNL     1      -5.685 -27.550  22.957  0.00  0.00    +0.000 N 
ATOM      9  C   UNL     1      -5.326 -26.521  23.741  0.00  0.00    +0.000 A 
ATOM     10  N   UNL     1      -5.946 -25.376  24.024  0.00  0.00    +0.000 NA
ATOM     11  H   UNL     1      -5.507 -22.385  24.846  0.00  0.00    +0.000 HD
ATOM     12  H   UNL     1      -6.802 -23.168  25.803  0.00  0.00    +0.000 HD
ENDROOT
BRANCH   8  13
ATOM     13  C   UNL     1      -6.867 -27.758  22.161  0.00  0.00    +0.000 C 
ATOM     14  C   UNL     1      -7.185 -26.597  21.293  0.00  0.00    +0.000 C 
ATOM     15  C   UNL     1      -8.499 -26.486  21.158  0.00  0.00    +0.000 C 
ATOM     16  C   UNL     1      -9.167 -27.589  21.943  0.00  0.00    +0.000 C 
ATOM     17  C   UNL     1      -8.123 -27.822  23.017  0.00  0.00    +0.000 C 
BRANCH  16  18
ATOM     18  C   UNL     1     -10.485 -27.130  22.508  0.00  0.00    +0.000 C 
BRANCH  18  19
ATOM     19  O   UNL     1     -10.959 -26.122  21.669  0.00  0.00    +0.000 OA
ATOM     20  H   UNL     1     -11.587 -26.528  21.038  0.00  0.00    +0.000 HD
ENDBRANCH  18  19
ENDBRANCH  16  18
ENDBRANCH   8  13
BRANCH   4  21
ATOM     21  N   UNL     1      -2.200 -26.169  25.737  0.00  0.00    +0.000 N 
ATOM     22  H   UNL     1      -1.337 -26.100  25.130  0.00  0.00    +0.000 HD
BRANCH  21  23
ATOM     23  C   UNL     1      -2.001 -26.543  27.099  0.00  0.00    +0.000 C 
ATOM     24  C   UNL     1      -2.775 -27.570  27.791  0.00  0.00    +0.000 C 
ATOM     25  C   UNL     1      -1.445 -27.954  27.274  0.00  0.00    +0.000 C 
ENDBRANCH  21  23
ENDBRANCH   4  21
TORSDOF 5
ENDMDL
MODEL 5
REMARK VINA RESULT:    -6.010      2.196      3.038
REMARK INTER + INTRA:          -7.905
REMARK INTER:                  -7.431
REMARK INTRA:                  -0.474
REMARK UNBOUND:                -0.314
REMARK  Name = 
REMARK  5 active torsions:
REMARK  status: ('A' for Active; 'I' for Inactive)
REMARK    1  A    between atoms: C_4  and  N_5
REMARK    2  A    between atoms: N_5  and  C_6
REMARK    3  A    between atoms: N_12  and  C_13
REMARK    4  A    between atoms: C_16  and  C_17
REMARK    5  A    between atoms: C_17  and  O_18
REMARK                            x       y       z     vdW  Elec       q    Type
REMARK                         _______ _______ _______ _____ _____    ______ ____
ROOT
ATOM      1  N   UNL     1      -6.684 -22.485  23.959  0.00  0.00    +0.000 N 
ATOM      2  C   UNL     1      -6.590 -23.869  24.274  0.00  0.00    +0.000 A 
ATOM      3  N   UNL     1      -7.733 -24.446  24.748  0.00  0.00    +0.000 NA
ATOM      4  C   UNL     1      -7.769 -25.747  25.081  0.00  0.00    +0.000 A 
ATOM      5  C   UNL     1      -6.604 -26.467  24.922  0.00  0.00    +0.000 A 
ATOM      6  N   UNL     1      -6.291 -27.736  25.145  0.00  0.00    +0.000 NA
ATOM      7  C   UNL     1      -5.000 -27.929  24.819  0.00  0.00    +0.000 A 
ATOM      8  N   UNL     1      -4.459 -26.780  24.378  0.00  0.00    +0.000 N 
ATOM      9  C   UNL     1      -5.440 -25.866  24.436  0.00  0.00    +0.000 A 
ATOM     10  N   UNL     1      -5.452 -24.571  24.119  0.00  0.00    +0.000 NA
ATOM     11  H   UNL     1      -6.800 -21.815  24.749  0.00  0.00    +0.000 HD
ATOM     12  H   UNL     1      -6.644 -22.106  22.990  0.00  0.00    +0.000 HD
ENDROOT
BRANCH   8  13
ATOM     13  C   UNL     1      -3.088 -26.664  23.952  0.00  0.00    +0.000 C 
ATOM     14  C   UNL     1      -2.709 -27.697  22.956  0.00  0.00    +0.000 C 
ATOM     15  C   UNL     1      -1.435 -28.028  23.118  0.00  0.00    +0.000 C 
ATOM     16  C   UNL     1      -0.861 -27.223  24.259  0.00  0.00    +0.000 C 
ATOM     17  C   UNL     1      -2.115 -26.987  25.076  0.00  0.00    +0.000 C 
BRANCH  16  18
ATOM     18  C   UNL     1       0.178 -28.013  25.009  0.00  0.00    +0.000 C 
BRANCH  18  19
ATOM     19  O   UNL     1       1.296 -27.191  25.144  0.00  0.00    +0.000 OA
ATOM     20  H   UNL     1       2.022 -27.584  24.618  0.00  0.00    +0.000 HD
ENDBRANCH  18  19
ENDBRANCH  16  18
ENDBRANCH   8  13
BRANCH   4  21
ATOM     21  N   UNL     1      -8.950 -26.369  25.577  0.00  0.00    +0.000 N 
ATOM     22  H   UNL     1      -9.498 -27.012  24.940  0.00  0.00    +0.000 HD
BRANCH  21  23
ATOM     23  C   UNL     1      -9.459 -26.184  26.897  0.00  0.00    +0.000 C 
ATOM     24  C   UNL     1     -10.137 -24.975  27.355  0.00  0.00    +0.000 C 
ATOM     25  C   UNL     1     -10.983 -26.123  26.966  0.00  0.00    +0.000 C 
ENDBRANCH  21  23
ENDBRANCH   4  21
TORSDOF 5
ENDMDL
MODEL 6
REMARK VINA RESULT:    -5.884      3.786      6.643
REMARK INTER + INTRA:          -7.746
REMARK INTER:                  -7.216
REMARK INTRA:                  -0.530
REMARK UNBOUND:                -0.314
REMARK  Name = 
REMARK  5 active torsions:
REMARK  status: ('A' for Active; 'I' for Inactive)
REMARK    1  A    between atoms: C_4  and  N_5
REMARK    2  A    between atoms: N_5  and  C_6
REMARK    3  A    between atoms: N_12  and  C_13
REMARK    4  A    between atoms: C_16  and  C_17
REMARK    5  A    between atoms: C_17  and  O_18
REMARK                            x       y       z     vdW  Elec       q    Type
REMARK                         _______ _______ _______ _____ _____    ______ ____
ROOT
ATOM      1  N   UNL     1      -1.364 -28.091  22.426  0.00  0.00    +0.000 N 
ATOM      2  C   UNL     1      -2.350 -27.603  23.328  0.00  0.00    +0.000 A 
ATOM      3  N   UNL     1      -1.880 -27.139  24.523  0.00  0.00    +0.000 NA
ATOM      4  C   UNL     1      -2.715 -26.653  25.457  0.00  0.00    +0.000 A 
ATOM      5  C   UNL     1      -4.060 -26.644  25.153  0.00  0.00    +0.000 A 
ATOM      6  N   UNL     1      -5.132 -26.247  25.822  0.00  0.00    +0.000 NA
ATOM      7  C   UNL     1      -6.222 -26.460  25.063  0.00  0.00    +0.000 A 
ATOM      8  N   UNL     1      -5.865 -27.002  23.885  0.00  0.00    +0.000 N 
ATOM      9  C   UNL     1      -4.528 -27.122  23.926  0.00  0.00    +0.000 A 
ATOM     10  N   UNL     1      -3.663 -27.595  23.031  0.00  0.00    +0.000 NA
ATOM     11  H   UNL     1      -0.874 -28.976  22.678  0.00  0.00    +0.000 HD
ATOM     12  H   UNL     1      -1.105 -27.617  21.536  0.00  0.00    +0.000 HD
ENDROOT
BRANCH   8  13
ATOM     13  C   UNL     1      -6.809 -27.345  22.854  0.00  0.00    +0.000 C 
ATOM     14  C   UNL     1      -7.115 -26.205  21.954  0.00  0.00    +0.000 C 
ATOM     15  C   UNL     1      -8.374 -26.283  21.545  0.00  0.00    +0.000 C 
ATOM     16  C   UNL     1      -9.013 -27.507  22.156  0.00  0.00    +0.000 C 
ATOM     17  C   UNL     1      -8.191 -27.632  23.423  0.00  0.00    +0.000 C 
BRANCH  16  18
ATOM     18  C   UNL     1     -10.474 -27.273  22.434  0.00  0.00    +0.000 C 
BRANCH  18  19
ATOM     19  O   UNL     1     -10.860 -26.165  21.681  0.00  0.00    +0.000 OA
ATOM     20  H   UNL     1     -10.780 -25.374  22.250  0.00  0.00    +0.000 HD
ENDBRANCH  18  19
ENDBRANCH  16  18
ENDBRANCH   8  13
BRANCH   4  21
ATOM     21  N   UNL     1      -2.246 -26.164  26.710  0.00  0.00    +0.000 N 
ATOM     22  H   UNL     1      -1.882 -25.173  26.771  0.00  0.00    +0.000 HD
BRANCH  21  23
ATOM     23  C   UNL     1      -2.231 -26.930  27.914  0.00  0.00    +0.000 C 
ATOM     24  C   UNL     1      -1.186 -27.887  28.267  0.00  0.00    +0.000 C 
ATOM     25  C   UNL     1      -1.110 -26.543  28.876  0.00  0.00    +0.000 C 
ENDBRANCH  21  23
ENDBRANCH   4  21
TORSDOF 5
ENDMDL
MODEL 7
REMARK VINA RESULT:    -5.724      1.946      3.685
REMARK INTER + INTRA:          -7.543
REMARK INTER:                  -7.518
REMARK INTRA:                  -0.025
REMARK UNBOUND:                -0.314
REMARK  Name = 
REMARK  5 active torsions:
REMARK  status: ('A' for Active; 'I' for Inactive)
REMARK    1  A    between atoms: C_4  and  N_5
REMARK    2  A    between atoms: N_5  and  C_6
REMARK    3  A    between atoms: N_12  and  C_13
REMARK    4  A    between atoms: C_16  and  C_17
REMARK    5  A    between atoms: C_17  and  O_18
REMARK                            x       y       z     vdW  Elec       q    Type
REMARK                         _______ _______ _______ _____ _____    ______ ____
ROOT
ATOM      1  N   UNL     1      -5.882 -23.867  25.130  0.00  0.00    +0.000 N 
ATOM      2  C   UNL     1      -5.810 -25.008  24.283  0.00  0.00    +0.000 A 
ATOM      3  N   UNL     1      -6.813 -25.126  23.364  0.00  0.00    +0.000 NA
ATOM      4  C   UNL     1      -6.853 -26.161  22.509  0.00  0.00    +0.000 A 
ATOM      5  C   UNL     1      -5.841 -27.093  22.603  0.00  0.00    +0.000 A 
ATOM      6  N   UNL     1      -5.577 -28.207  21.935  0.00  0.00    +0.000 NA
ATOM      7  C   UNL     1      -4.451 -28.753  22.429  0.00  0.00    +0.000 A 
ATOM      8  N   UNL     1      -3.970 -27.993  23.428  0.00  0.00    +0.000 N 
ATOM      9  C   UNL     1      -4.820 -26.961  23.548  0.00  0.00    +0.000 A 
ATOM     10  N   UNL     1      -4.821 -25.917  24.375  0.00  0.00    +0.000 NA
ATOM     11  H   UNL     1      -6.650 -23.834  25.833  0.00  0.00    +0.000 HD
ATOM     12  H   UNL     1      -5.215 -23.069  25.087  0.00  0.00    +0.000 HD
ENDROOT
BRANCH   8  13
ATOM     13  C   UNL     1      -2.771 -28.314  24.159  0.00  0.00    +0.000 C 
ATOM     14  C   UNL     1      -2.243 -27.159  24.928  0.00  0.00    +0.000 C 
ATOM     15  C   UNL     1      -0.920 -27.219  24.972  0.00  0.00    +0.000 C 
ATOM     16  C   UNL     1      -0.459 -28.443  24.218  0.00  0.00    +0.000 C 
ATOM     17  C   UNL     1      -1.599 -28.593  23.230  0.00  0.00    +0.000 C 
BRANCH  16  18
ATOM     18  C   UNL     1       0.864 -28.197  23.542  0.00  0.00    +0.000 C 
BRANCH  18  19
ATOM     19  O   UNL     1       0.585 -27.761  22.247  0.00  0.00    +0.000 OA
ATOM     20  H   UNL     1       0.103 -28.477  21.788  0.00  0.00    +0.000 HD
ENDBRANCH  18  19
ENDBRANCH  16  18
ENDBRANCH   8  13
BRANCH   4  21
ATOM     21  N   UNL     1      -7.891 -26.304  21.543  0.00  0.00    +0.000 N 
ATOM     22  H   UNL     1      -7.840 -25.740  20.649  0.00  0.00    +0.000 HD
BRANCH  21  23
ATOM     23  C   UNL     1      -9.015 -27.167  21.696  0.00  0.00    +0.000 C 
ATOM     24  C   UNL     1     -10.071 -26.976  22.687  0.00  0.00    +0.000 C 
ATOM     25  C   UNL     1     -10.344 -26.523  21.306  0.00  0.00    +0.000 C 
ENDBRANCH  21  23
ENDBRANCH   4  21
TORSDOF 5
ENDMDL
MODEL 8
REMARK VINA RESULT:    -5.535      3.688      7.064
REMARK INTER + INTRA:          -7.305
REMARK INTER:                  -6.950
REMARK INTRA:                  -0.355
REMARK UNBOUND:                -0.314
REMARK  Name = 
REMARK  5 active torsions:
REMARK  status: ('A' for Active; 'I' for Inactive)
REMARK    1  A    between atoms: C_4  and  N_5
REMARK    2  A    between atoms: N_5  and  C_6
REMARK    3  A    between atoms: N_12  and  C_13
REMARK    4  A    between atoms: C_16  and  C_17
REMARK    5  A    between atoms: C_17  and  O_18
REMARK                            x       y       z     vdW  Elec       q    Type
REMARK                         _______ _______ _______ _____ _____    ______ ____
ROOT
ATOM      1  N   UNL     1      -4.179 -26.284  28.317  0.00  0.00    +0.000 N 
ATOM      2  C   UNL     1      -4.687 -25.753  27.099  0.00  0.00    +0.000 A 
ATOM      3  N   UNL     1      -4.251 -26.367  25.960  0.00  0.00    +0.000 NA
ATOM      4  C   UNL     1      -4.660 -25.956  24.748  0.00  0.00    +0.000 A 
ATOM      5  C   UNL     1      -5.535 -24.891  24.710  0.00  0.00    +0.000 A 
ATOM      6  N   UNL     1      -6.125 -24.245  23.714  0.00  0.00    +0.000 NA
ATOM      7  C   UNL     1      -6.895 -23.268  24.225  0.00  0.00    +0.000 A 
ATOM      8  N   UNL     1      -6.813 -23.271  25.567  0.00  0.00    +0.000 N 
ATOM      9  C   UNL     1      -5.974 -24.271  25.882  0.00  0.00    +0.000 A 
ATOM     10  N   UNL     1      -5.541 -24.714  27.062  0.00  0.00    +0.000 NA
ATOM     11  H   UNL     1      -3.167 -26.142  28.523  0.00  0.00    +0.000 HD
ATOM     12  H   UNL     1      -4.757 -26.802  29.011  0.00  0.00    +0.000 HD
ENDROOT
BRANCH   8  13
ATOM     13  C   UNL     1      -7.526 -22.342  26.406  0.00  0.00    +0.000 C 
ATOM     14  C   UNL     1      -6.620 -21.504  27.231  0.00  0.00    +0.000 C 
ATOM     15  C   UNL     1      -7.197 -21.232  28.393  0.00  0.00    +0.000 C 
ATOM     16  C   UNL     1      -8.558 -21.885  28.429  0.00  0.00    +0.000 C 
ATOM     17  C   UNL     1      -8.318 -23.053  27.493  0.00  0.00    +0.000 C 
BRANCH  16  18
ATOM     18  C   UNL     1      -8.911 -22.325  29.825  0.00  0.00    +0.000 C 
BRANCH  18  19
ATOM     19  O   UNL     1      -9.795 -23.397  29.703  0.00  0.00    +0.000 OA
ATOM     20  H   UNL     1     -10.656 -23.042  29.406  0.00  0.00    +0.000 HD
ENDBRANCH  18  19
ENDBRANCH  16  18
ENDBRANCH   8  13
BRANCH   4  21
ATOM     21  N   UNL     1      -4.217 -26.582  23.547  0.00  0.00    +0.000 N 
ATOM     22  H   UNL     1      -3.290 -26.292  23.130  0.00  0.00    +0.000 HD
BRANCH  21  23
ATOM     23  C   UNL     1      -4.948 -27.591  22.853  0.00  0.00    +0.000 C 
ATOM     24  C   UNL     1      -5.915 -27.324  21.793  0.00  0.00    +0.000 C 
ATOM     25  C   UNL     1      -4.556 -27.735  21.385  0.00  0.00    +0.000 C 
ENDBRANCH  21  23
ENDBRANCH   4  21
TORSDOF 5
ENDMDL
