MODEL 1
REMARK VINA RESULT:    -5.779      0.000      0.000
REMARK INTER + INTRA:          -8.993
REMARK INTER:                  -9.157
REMARK INTRA:                   0.164
REMARK UNBOUND:                 0.164
REMARK  Name = 
REMARK  13 active torsions:
REMARK  status: ('A' for Active; 'I' for Inactive)
REMARK    1  A    between atoms: C_1  and  C_2
REMARK    2  A    between atoms: C_2  and  N_3
REMARK    3  A    between atoms: N_9  and  CA_10
REMARK    4  A    between atoms: CA_10  and  C_11
REMARK    5  A    between atoms: CA_10  and  C_34
REMARK    6  A    between atoms: N_13  and  CA_14
REMARK    7  A    between atoms: CA_18  and  C_19
REMARK    8  A    between atoms: C_19  and  OXT_21
REMARK    9  A    between atoms: C_22  and  C_23
REMARK   10  A    between atoms: C_23  and  S_24
REMARK   11  A    between atoms: S_24  and  C_25
REMARK   12  A    between atoms: N_29  and  C_30
REMARK   13  A    between atoms: C_37  and  O_38
REMARK                            x       y       z     vdW  Elec       q    Type
REMARK                         _______ _______ _______ _____ _____    ______ ____
ROOT
ATOM      1  C   UNL     1     -39.074   4.613   3.149  0.00  0.00    +0.000 C 
ATOM      2  O   UNL     1     -38.292   3.632   3.072  0.00  0.00    +0.000 OA
ATOM      3  N   UNL     1     -39.265   5.512   2.045  0.00  0.00    +0.000 N 
ATOM      4  H   UNL     1     -39.901   6.313   2.104  0.00  0.00    +0.000 HD
ENDROOT
BRANCH   3   5
ATOM      5  CA  UNL     1     -38.537   5.280   0.815  0.00  0.00    +0.000 C 
ATOM      6  C   UNL     1     -38.005   6.586   0.234  0.00  0.00    +0.000 C 
ATOM      7  O   UNL     1     -37.643   7.680   0.725  0.00  0.00    +0.000 OA
ATOM      8  N   UNL     1     -38.132   5.956  -1.010  0.00  0.00    +0.000 N 
ATOM      9  CA  UNL     1     -37.595   5.750  -2.322  0.00  0.00    +0.000 C 
ATOM     10  C   UNL     1     -38.285   5.102  -3.206  0.00  0.00    +0.000 C 
ATOM     11  C   UNL     1     -39.665   4.524  -3.020  0.00  0.00    +0.000 C 
ATOM     12  S   UNL     1     -39.680   3.811  -1.325  0.00  0.00    +0.000 S 
ATOM     13  C   UNL     1     -39.310   5.354  -0.446  0.00  0.00    +0.000 C 
BRANCH   9  14
ATOM     14  C   UNL     1     -36.275   6.321  -2.611  0.00  0.00    +0.000 C 
ATOM     15  O   UNL     1     -35.904   6.679  -3.710  0.00  0.00    +0.000 OA
BRANCH  14  16
ATOM     16  OXT UNL     1     -35.355   6.475  -1.553  0.00  0.00    +0.000 OA
ATOM     17  HXT UNL     1     -35.564   6.042  -0.640  0.00  0.00    +0.000 HD
ENDBRANCH  14  16
ENDBRANCH   9  14
BRANCH  10  18
ATOM     18  C   UNL     1     -37.794   4.852  -4.567  0.00  0.00    +0.000 C 
BRANCH  18  19
ATOM     19  S   UNL     1     -39.184   5.330  -5.680  0.00  0.00    +0.000 S 
BRANCH  19  20
ATOM     20  C   UNL     1     -39.250   7.125  -5.636  0.00  0.00    +0.000 A 
ATOM     21  N   UNL     1     -38.205   7.979  -5.656  0.00  0.00    +0.000 NA
ATOM     22  N   UNL     1     -38.719   9.184  -5.609  0.00  0.00    +0.000 NA
ATOM     23  N   UNL     1     -40.036   9.122  -5.561  0.00  0.00    +0.000 NA
ATOM     24  N   UNL     1     -40.389   7.834  -5.577  0.00  0.00    +0.000 N 
ATOM     25  C   UNL     1     -41.748   7.328  -5.537  0.00  0.00    +0.000 C 
ENDBRANCH  19  20
ENDBRANCH  18  19
ENDBRANCH  10  18
ENDBRANCH   3   5
BRANCH   1  26
ATOM     26  CA  UNL     1     -39.866   4.933   4.374  0.00  0.00    +0.000 C 
BRANCH  26  33
ATOM     27  N   UNL     1     -43.747  10.028   4.965  0.00  0.00    +0.000 N 
ATOM     28  C   UNL     1     -42.898   9.495   3.892  0.00  0.00    +0.000 C 
ATOM     29  C   UNL     1     -43.072   7.977   3.840  0.00  0.00    +0.000 C 
ATOM     30  N   UNL     1     -42.600   7.464   5.112  0.00  0.00    +0.000 N 
ATOM     31  C   UNL     1     -41.573   6.491   5.242  0.00  0.00    +0.000 C 
ATOM     32  O   UNL     1     -41.257   6.129   6.413  0.00  0.00    +0.000 OA
ATOM     33  N   UNL     1     -40.889   5.908   4.141  0.00  0.00    +0.000 N 
ATOM     34  C   UNL     1     -43.244   8.002   6.274  0.00  0.00    +0.000 C 
ATOM     35  O   UNL     1     -43.271   7.304   7.320  0.00  0.00    +0.000 OA
ATOM     36  C   UNL     1     -43.841   9.331   6.203  0.00  0.00    +0.000 C 
ATOM     37  O   UNL     1     -44.410   9.833   7.195  0.00  0.00    +0.000 OA
ATOM     38  H   UNL     1     -41.129   6.186   3.177  0.00  0.00    +0.000 HD
BRANCH  27  40
ATOM     39  C   UNL     1     -43.743  12.171   3.773  0.00  0.00    +0.000 C 
ATOM     40  C   UNL     1     -44.474  11.258   4.736  0.00  0.00    +0.000 C 
ENDBRANCH  27  40
ENDBRANCH  26  33
BRANCH  26  41
ATOM     41  C   UNL     1     -38.905   5.371   5.439  0.00  0.00    +0.000 A 
ATOM     42  C   UNL     1     -38.625   4.560   6.523  0.00  0.00    +0.000 A 
ATOM     43  C   UNL     1     -37.744   4.939   7.517  0.00  0.00    +0.000 A 
ATOM     44  C   UNL     1     -37.109   6.164   7.447  0.00  0.00    +0.000 A 
ATOM     45  C   UNL     1     -37.388   6.970   6.366  0.00  0.00    +0.000 A 
ATOM     46  C   UNL     1     -38.277   6.596   5.357  0.00  0.00    +0.000 A 
BRANCH  44  47
ATOM     47  O   UNL     1     -36.224   6.550   8.441  0.00  0.00    +0.000 OA
ATOM     48  H   UNL     1     -35.295   6.911   8.265  0.00  0.00    +0.000 HD
ENDBRANCH  44  47
ENDBRANCH  26  41
ENDBRANCH   1  26
TORSDOF 11
ENDMDL
MODEL 2
REMARK VINA RESULT:    -4.130      1.932      2.393
REMARK INTER + INTRA:          -6.380
REMARK INTER:                  -6.832
REMARK INTRA:                   0.452
REMARK UNBOUND:                 0.164
REMARK  Name = 
REMARK  13 active torsions:
REMARK  status: ('A' for Active; 'I' for Inactive)
REMARK    1  A    between atoms: C_1  and  C_2
REMARK    2  A    between atoms: C_2  and  N_3
REMARK    3  A    between atoms: N_9  and  CA_10
REMARK    4  A    between atoms: CA_10  and  C_11
REMARK    5  A    between atoms: CA_10  and  C_34
REMARK    6  A    between atoms: N_13  and  CA_14
REMARK    7  A    between atoms: CA_18  and  C_19
REMARK    8  A    between atoms: C_19  and  OXT_21
REMARK    9  A    between atoms: C_22  and  C_23
REMARK   10  A    between atoms: C_23  and  S_24
REMARK   11  A    between atoms: S_24  and  C_25
REMARK   12  A    between atoms: N_29  and  C_30
REMARK   13  A    between atoms: C_37  and  O_38
REMARK                            x       y       z     vdW  Elec       q    Type
REMARK                         _______ _______ _______ _____ _____    ______ ____
ROOT
ATOM      1  C   UNL     1     -41.368   4.635   3.307  0.00  0.00    +0.000 C 
ATOM      2  O   UNL     1     -40.534   3.696   3.340  0.00  0.00    +0.000 OA
ATOM      3  N   UNL     1     -41.867   5.156   2.064  0.00  0.00    +0.000 N 
ATOM      4  H   UNL     1     -42.546   5.921   2.033  0.00  0.00    +0.000 HD
ENDROOT
BRANCH   3   5
ATOM      5  CA  UNL     1     -41.393   4.583   0.822  0.00  0.00    +0.000 C 
ATOM      6  C   UNL     1     -40.411   5.516   0.122  0.00  0.00    +0.000 C 
ATOM      7  O   UNL     1     -39.593   6.379   0.514  0.00  0.00    +0.000 OA
ATOM      8  N   UNL     1     -40.879   4.940  -1.065  0.00  0.00    +0.000 N 
ATOM      9  CA  UNL     1     -40.573   4.467  -2.382  0.00  0.00    +0.000 C 
ATOM     10  C   UNL     1     -41.534   4.128  -3.183  0.00  0.00    +0.000 C 
ATOM     11  C   UNL     1     -43.011   4.191  -2.891  0.00  0.00    +0.000 C 
ATOM     12  S   UNL     1     -43.197   3.630  -1.149  0.00  0.00    +0.000 S 
ATOM     13  C   UNL     1     -42.155   4.914  -0.404  0.00  0.00    +0.000 C 
BRANCH   9  14
ATOM     14  C   UNL     1     -39.161   4.418  -2.775  0.00  0.00    +0.000 C 
ATOM     15  O   UNL     1     -38.229   4.646  -2.031  0.00  0.00    +0.000 OA
BRANCH  14  16
ATOM     16  OXT UNL     1     -38.838   4.085  -4.107  0.00  0.00    +0.000 OA
ATOM     17  HXT UNL     1     -38.085   3.402  -4.284  0.00  0.00    +0.000 HD
ENDBRANCH  14  16
ENDBRANCH   9  14
BRANCH  10  18
ATOM     18  C   UNL     1     -41.292   3.631  -4.544  0.00  0.00    +0.000 C 
BRANCH  18  19
ATOM     19  S   UNL     1     -42.212   4.783  -5.651  0.00  0.00    +0.000 S 
BRANCH  19  20
ATOM     20  C   UNL     1     -41.363   6.362  -5.529  0.00  0.00    +0.000 A 
ATOM     21  N   UNL     1     -40.034   6.564  -5.410  0.00  0.00    +0.000 NA
ATOM     22  N   UNL     1     -39.868   7.864  -5.354  0.00  0.00    +0.000 NA
ATOM     23  N   UNL     1     -41.031   8.481  -5.432  0.00  0.00    +0.000 NA
ATOM     24  N   UNL     1     -41.984   7.552  -5.541  0.00  0.00    +0.000 N 
ATOM     25  C   UNL     1     -43.408   7.809  -5.653  0.00  0.00    +0.000 C 
ENDBRANCH  19  20
ENDBRANCH  18  19
ENDBRANCH  10  18
ENDBRANCH   3   5
BRANCH   1  26
ATOM     26  CA  UNL     1     -41.913   5.289   4.534  0.00  0.00    +0.000 C 
BRANCH  26  33
ATOM     27  N   UNL     1     -43.909  11.395   4.854  0.00  0.00    +0.000 N 
ATOM     28  C   UNL     1     -43.341  10.548   3.797  0.00  0.00    +0.000 C 
ATOM     29  C   UNL     1     -43.997   9.169   3.872  0.00  0.00    +0.000 C 
ATOM     30  N   UNL     1     -43.641   8.612   5.163  0.00  0.00    +0.000 N 
ATOM     31  C   UNL     1     -42.975   7.369   5.334  0.00  0.00    +0.000 C 
ATOM     32  O   UNL     1     -42.724   7.000   6.518  0.00  0.00    +0.000 OA
ATOM     33  N   UNL     1     -42.581   6.527   4.260  0.00  0.00    +0.000 N 
ATOM     34  C   UNL     1     -44.008   9.404   6.301  0.00  0.00    +0.000 C 
ATOM     35  O   UNL     1     -44.197   8.820   7.399  0.00  0.00    +0.000 OA
ATOM     36  C   UNL     1     -44.149  10.847   6.145  0.00  0.00    +0.000 C 
ATOM     37  O   UNL     1     -44.468  11.569   7.113  0.00  0.00    +0.000 OA
ATOM     38  H   UNL     1     -42.775   6.805   3.286  0.00  0.00    +0.000 HD
BRANCH  27  40
ATOM     39  C   UNL     1     -43.854  13.134   3.125  0.00  0.00    +0.000 C 
ATOM     40  C   UNL     1     -44.214  12.777   4.553  0.00  0.00    +0.000 C 
ENDBRANCH  27  40
ENDBRANCH  26  33
BRANCH  26  41
ATOM     41  C   UNL     1     -40.780   5.465   5.501  0.00  0.00    +0.000 A 
ATOM     42  C   UNL     1     -40.847   4.940   6.778  0.00  0.00    +0.000 A 
ATOM     43  C   UNL     1     -39.818   5.086   7.688  0.00  0.00    +0.000 A 
ATOM     44  C   UNL     1     -38.675   5.775   7.333  0.00  0.00    +0.000 A 
ATOM     45  C   UNL     1     -38.610   6.297   6.060  0.00  0.00    +0.000 A 
ATOM     46  C   UNL     1     -39.644   6.154   5.134  0.00  0.00    +0.000 A 
BRANCH  44  47
ATOM     47  O   UNL     1     -37.639   5.926   8.241  0.00  0.00    +0.000 OA
ATOM     48  H   UNL     1     -36.748   5.450   8.170  0.00  0.00    +0.000 HD
ENDBRANCH  44  47
ENDBRANCH  26  41
ENDBRANCH   1  26
TORSDOF 11
ENDMDL
MODEL 3
REMARK VINA RESULT:    -3.918      3.885     10.540
REMARK INTER + INTRA:          -6.046
REMARK INTER:                  -7.863
REMARK INTRA:                   1.818
REMARK UNBOUND:                 0.164
REMARK  Name = 
REMARK  13 active torsions:
REMARK  status: ('A' for Active; 'I' for Inactive)
REMARK    1  A    between atoms: C_1  and  C_2
REMARK    2  A    between atoms: C_2  and  N_3
REMARK    3  A    between atoms: N_9  and  CA_10
REMARK    4  A    between atoms: CA_10  and  C_11
REMARK    5  A    between atoms: CA_10  and  C_34
REMARK    6  A    between atoms: N_13  and  CA_14
REMARK    7  A    between atoms: CA_18  and  C_19
REMARK    8  A    between atoms: C_19  and  OXT_21
REMARK    9  A    between atoms: C_22  and  C_23
REMARK   10  A    between atoms: C_23  and  S_24
REMARK   11  A    between atoms: S_24  and  C_25
REMARK   12  A    between atoms: N_29  and  C_30
REMARK   13  A    between atoms: C_37  and  O_38
REMARK                            x       y       z     vdW  Elec       q    Type
REMARK                         _______ _______ _______ _____ _____    ______ ____
ROOT
ATOM      1  C   UNL     1     -40.908   5.204   1.810  0.00  0.00    +0.000 C 
ATOM      2  O   UNL     1     -39.685   5.123   2.087  0.00  0.00    +0.000 OA
ATOM      3  N   UNL     1     -41.921   5.040   2.816  0.00  0.00    +0.000 N 
ATOM      4  H   UNL     1     -42.918   5.105   2.594  0.00  0.00    +0.000 HD
ENDROOT
BRANCH   3   5
ATOM      5  CA  UNL     1     -41.518   4.775   4.181  0.00  0.00    +0.000 C 
ATOM      6  C   UNL     1     -42.632   5.124   5.163  0.00  0.00    +0.000 C 
ATOM      7  O   UNL     1     -43.883   5.138   5.098  0.00  0.00    +0.000 OA
ATOM      8  N   UNL     1     -41.600   5.389   6.070  0.00  0.00    +0.000 N 
ATOM      9  CA  UNL     1     -41.130   5.321   7.422  0.00  0.00    +0.000 C 
ATOM     10  C   UNL     1     -40.026   5.915   7.750  0.00  0.00    +0.000 C 
ATOM     11  C   UNL     1     -39.139   6.727   6.842  0.00  0.00    +0.000 C 
ATOM     12  S   UNL     1     -39.105   5.821   5.242  0.00  0.00    +0.000 S 
ATOM     13  C   UNL     1     -40.889   5.890   4.925  0.00  0.00    +0.000 C 
BRANCH   9  14
ATOM     14  C   UNL     1     -41.955   4.593   8.390  0.00  0.00    +0.000 C 
ATOM     15  O   UNL     1     -41.580   3.636   9.037  0.00  0.00    +0.000 OA
BRANCH  14  16
ATOM     16  OXT UNL     1     -43.285   5.015   8.602  0.00  0.00    +0.000 OA
ATOM     17  HXT UNL     1     -43.806   4.641   9.411  0.00  0.00    +0.000 HD
ENDBRANCH  14  16
ENDBRANCH   9  14
BRANCH  10  18
ATOM     18  C   UNL     1     -39.486   5.882   9.116  0.00  0.00    +0.000 C 
BRANCH  18  19
ATOM     19  S   UNL     1     -38.191   4.569   9.092  0.00  0.00    +0.000 S 
BRANCH  19  20
ATOM     20  C   UNL     1     -36.675   5.386   8.578  0.00  0.00    +0.000 A 
ATOM     21  N   UNL     1     -36.101   6.468   9.146  0.00  0.00    +0.000 NA
ATOM     22  N   UNL     1     -35.019   6.713   8.447  0.00  0.00    +0.000 NA
ATOM     23  N   UNL     1     -34.892   5.836   7.470  0.00  0.00    +0.000 NA
ATOM     24  N   UNL     1     -35.926   4.993   7.536  0.00  0.00    +0.000 N 
ATOM     25  C   UNL     1     -36.165   3.875   6.642  0.00  0.00    +0.000 C 
ENDBRANCH  19  20
ENDBRANCH  18  19
ENDBRANCH  10  18
ENDBRANCH   3   5
BRANCH   1  26
ATOM     26  CA  UNL     1     -41.419   5.473   0.433  0.00  0.00    +0.000 C 
BRANCH  26  33
ATOM     27  N   UNL     1     -37.184   6.774  -4.230  0.00  0.00    +0.000 N 
ATOM     28  C   UNL     1     -37.120   6.067  -2.944  0.00  0.00    +0.000 C 
ATOM     29  C   UNL     1     -38.371   5.199  -2.802  0.00  0.00    +0.000 C 
ATOM     30  N   UNL     1     -39.502   6.106  -2.784  0.00  0.00    +0.000 N 
ATOM     31  C   UNL     1     -40.455   6.164  -1.733  0.00  0.00    +0.000 C 
ATOM     32  O   UNL     1     -41.396   7.003  -1.844  0.00  0.00    +0.000 OA
ATOM     33  N   UNL     1     -40.410   5.340  -0.576  0.00  0.00    +0.000 N 
ATOM     34  C   UNL     1     -39.620   6.972  -3.922  0.00  0.00    +0.000 C 
ATOM     35  O   UNL     1     -40.761   7.401  -4.230  0.00  0.00    +0.000 OA
ATOM     36  C   UNL     1     -38.420   7.320  -4.674  0.00  0.00    +0.000 C 
ATOM     37  O   UNL     1     -38.483   8.071  -5.670  0.00  0.00    +0.000 OA
ATOM     38  H   UNL     1     -39.654   4.649  -0.463  0.00  0.00    +0.000 HD
BRANCH  27  40
ATOM     39  C   UNL     1     -35.141   5.637  -4.970  0.00  0.00    +0.000 C 
ATOM     40  C   UNL     1     -35.978   6.899  -5.019  0.00  0.00    +0.000 C 
ENDBRANCH  27  40
ENDBRANCH  26  33
BRANCH  26  41
ATOM     41  C   UNL     1     -42.037   6.840   0.432  0.00  0.00    +0.000 A 
ATOM     42  C   UNL     1     -41.397   7.911   1.029  0.00  0.00    +0.000 A 
ATOM     43  C   UNL     1     -41.943   9.179   1.042  0.00  0.00    +0.000 A 
ATOM     44  C   UNL     1     -43.167   9.410   0.446  0.00  0.00    +0.000 A 
ATOM     45  C   UNL     1     -43.803   8.343  -0.148  0.00  0.00    +0.000 A 
ATOM     46  C   UNL     1     -43.260   7.057  -0.166  0.00  0.00    +0.000 A 
BRANCH  44  47
ATOM     47  O   UNL     1     -43.721  10.681   0.457  0.00  0.00    +0.000 OA
ATOM     48  H   UNL     1     -43.868  11.243  -0.373  0.00  0.00    +0.000 HD
ENDBRANCH  44  47
ENDBRANCH  26  41
ENDBRANCH   1  26
TORSDOF 11
ENDMDL
MODEL 4
REMARK VINA RESULT:    -3.577      2.653      3.395
REMARK INTER + INTRA:          -5.504
REMARK INTER:                  -6.506
REMARK INTRA:                   1.002
REMARK UNBOUND:                 0.164
REMARK  Name = 
REMARK  13 active torsions:
REMARK  status: ('A' for Active; 'I' for Inactive)
REMARK    1  A    between atoms: C_1  and  C_2
REMARK    2  A    between atoms: C_2  and  N_3
REMARK    3  A    between atoms: N_9  and  CA_10
REMARK    4  A    between atoms: CA_10  and  C_11
REMARK    5  A    between atoms: CA_10  and  C_34
REMARK    6  A    between atoms: N_13  and  CA_14
REMARK    7  A    between atoms: CA_18  and  C_19
REMARK    8  A    between atoms: C_19  and  OXT_21
REMARK    9  A    between atoms: C_22  and  C_23
REMARK   10  A    between atoms: C_23  and  S_24
REMARK   11  A    between atoms: S_24  and  C_25
REMARK   12  A    between atoms: N_29  and  C_30
REMARK   13  A    between atoms: C_37  and  O_38
REMARK                            x       y       z     vdW  Elec       q    Type
REMARK                         _______ _______ _______ _____ _____    ______ ____
ROOT
ATOM      1  C   UNL     1     -41.079   5.641   1.498  0.00  0.00    +0.000 C 
ATOM      2  O   UNL     1     -40.014   6.186   1.115  0.00  0.00    +0.000 OA
ATOM      3  N   UNL     1     -42.041   5.125   0.563  0.00  0.00    +0.000 N 
ATOM      4  H   UNL     1     -42.910   4.681   0.871  0.00  0.00    +0.000 HD
ENDROOT
BRANCH   3   5
ATOM      5  CA  UNL     1     -41.772   5.239  -0.855  0.00  0.00    +0.000 C 
ATOM      6  C   UNL     1     -42.746   4.395  -1.671  0.00  0.00    +0.000 C 
ATOM      7  O   UNL     1     -43.929   4.018  -1.505  0.00  0.00    +0.000 OA
ATOM      8  N   UNL     1     -41.704   4.288  -2.599  0.00  0.00    +0.000 N 
ATOM      9  CA  UNL     1     -41.310   4.239  -3.975  0.00  0.00    +0.000 C 
ATOM     10  C   UNL     1     -40.085   3.954  -4.285  0.00  0.00    +0.000 C 
ATOM     11  C   UNL     1     -38.969   3.630  -3.325  0.00  0.00    +0.000 C 
ATOM     12  S   UNL     1     -39.179   4.787  -1.911  0.00  0.00    +0.000 S 
ATOM     13  C   UNL     1     -40.846   4.246  -1.446  0.00  0.00    +0.000 C 
BRANCH   9  14
ATOM     14  C   UNL     1     -42.343   4.492  -4.985  0.00  0.00    +0.000 C 
ATOM     15  O   UNL     1     -43.192   3.692  -5.320  0.00  0.00    +0.000 OA
BRANCH  14  16
ATOM     16  OXT UNL     1     -42.371   5.748  -5.628  0.00  0.00    +0.000 OA
ATOM     17  HXT UNL     1     -42.257   6.603  -5.062  0.00  0.00    +0.000 HD
ENDBRANCH  14  16
ENDBRANCH   9  14
BRANCH  10  18
ATOM     18  C   UNL     1     -39.613   3.892  -5.675  0.00  0.00    +0.000 C 
BRANCH  18  19
ATOM     19  S   UNL     1     -37.990   4.766  -5.674  0.00  0.00    +0.000 S 
BRANCH  19  20
ATOM     20  C   UNL     1     -38.378   6.519  -5.587  0.00  0.00    +0.000 A 
ATOM     21  N   UNL     1     -39.604   7.083  -5.621  0.00  0.00    +0.000 NA
ATOM     22  N   UNL     1     -39.410   8.377  -5.529  0.00  0.00    +0.000 NA
ATOM     23  N   UNL     1     -38.121   8.645  -5.439  0.00  0.00    +0.000 NA
ATOM     24  N   UNL     1     -37.456   7.488  -5.474  0.00  0.00    +0.000 N 
ATOM     25  C   UNL     1     -36.015   7.338  -5.402  0.00  0.00    +0.000 C 
ENDBRANCH  19  20
ENDBRANCH  18  19
ENDBRANCH  10  18
ENDBRANCH   3   5
BRANCH   1  26
ATOM     26  CA  UNL     1     -41.444   5.478   2.937  0.00  0.00    +0.000 C 
BRANCH  26  33
ATOM     27  N   UNL     1     -43.922  10.399   6.256  0.00  0.00    +0.000 N 
ATOM     28  C   UNL     1     -43.747  10.099   4.829  0.00  0.00    +0.000 C 
ATOM     29  C   UNL     1     -44.115   8.634   4.589  0.00  0.00    +0.000 C 
ATOM     30  N   UNL     1     -43.174   7.841   5.355  0.00  0.00    +0.000 N 
ATOM     31  C   UNL     1     -42.336   6.842   4.792  0.00  0.00    +0.000 C 
ATOM     32  O   UNL     1     -41.558   6.223   5.575  0.00  0.00    +0.000 OA
ATOM     33  N   UNL     1     -42.325   6.503   3.412  0.00  0.00    +0.000 N 
ATOM     34  C   UNL     1     -43.127   8.123   6.761  0.00  0.00    +0.000 C 
ATOM     35  O   UNL     1     -42.750   7.210   7.540  0.00  0.00    +0.000 OA
ATOM     36  C   UNL     1     -43.515   9.447   7.232  0.00  0.00    +0.000 C 
ATOM     37  O   UNL     1     -43.487   9.729   8.449  0.00  0.00    +0.000 OA
ATOM     38  H   UNL     1     -42.950   6.993   2.754  0.00  0.00    +0.000 HD
BRANCH  27  40
ATOM     39  C   UNL     1     -44.083  12.784   5.711  0.00  0.00    +0.000 C 
ATOM     40  C   UNL     1     -44.510  11.665   6.637  0.00  0.00    +0.000 C 
ENDBRANCH  27  40
ENDBRANCH  26  33
BRANCH  26  41
ATOM     41  C   UNL     1     -40.171   5.422   3.728  0.00  0.00    +0.000 A 
ATOM     42  C   UNL     1     -39.346   6.528   3.829  0.00  0.00    +0.000 A 
ATOM     43  C   UNL     1     -38.168   6.504   4.551  0.00  0.00    +0.000 A 
ATOM     44  C   UNL     1     -37.782   5.349   5.203  0.00  0.00    +0.000 A 
ATOM     45  C   UNL     1     -38.605   4.249   5.102  0.00  0.00    +0.000 A 
ATOM     46  C   UNL     1     -39.796   4.264   4.375  0.00  0.00    +0.000 A 
BRANCH  44  47
ATOM     47  O   UNL     1     -36.602   5.318   5.929  0.00  0.00    +0.000 OA
ATOM     48  H   UNL     1     -36.547   5.466   6.929  0.00  0.00    +0.000 HD
ENDBRANCH  44  47
ENDBRANCH  26  41
ENDBRANCH   1  26
TORSDOF 11
ENDMDL
