HETATM 3913  C41 2U4 A 901     -41.127  12.573  -4.630  1.00120.55           C  
HETATM 3914  C42 2U4 A 901     -41.899  10.471  -2.901  1.00121.91           C  
HETATM 3915  C7  2U4 A 901     -33.645  10.961   7.763  1.00 72.71           C  
HETATM 3916  C40 2U4 A 901     -40.222  12.062  -3.693  1.00122.10           C  
HETATM 3917  C39 2U4 A 901     -40.600  10.985  -2.836  1.00122.31           C  
HETATM 3918  C44 2U4 A 901     -42.428  12.062  -4.677  1.00120.75           C  
HETATM 3919  C43 2U4 A 901     -42.813  11.012  -3.818  1.00121.79           C  
HETATM 3920  C8  2U4 A 901     -34.998  10.964   7.653  1.00 78.49           C  
HETATM 3921  C10 2U4 A 901     -34.890  11.978   9.646  1.00 73.84           C  
HETATM 3922  C35 2U4 A 901     -38.801  12.340  -3.383  1.00122.63           C  
HETATM 3923  C36 2U4 A 901     -39.387  10.631  -2.054  1.00120.93           C  
HETATM 3924  C25 2U4 A 901     -32.944  10.436   2.957  1.00 74.77           C  
HETATM 3925  C12 2U4 A 901     -35.743  10.415   6.484  1.00 85.61           C  
HETATM 3926  C1  2U4 A 901     -35.319  11.990  -0.063  1.00 95.98           C  
HETATM 3927  C13 2U4 A 901     -34.950   9.672   5.484  1.00 84.49           C  
HETATM 3928  C30 2U4 A 901     -34.264  12.868  -0.584  1.00 91.91           C  
HETATM 3929  C4  2U4 A 901     -36.482  10.046  -2.151  1.00112.74           C  
HETATM 3930  C17 2U4 A 901     -40.096  10.437   5.864  1.00108.85           C  
HETATM 3931  C18 2U4 A 901     -39.463  10.096   3.478  1.00101.51           C  
HETATM 3932  C19 2U4 A 901     -38.850  12.210   4.537  1.00103.84           C  
HETATM 3933  C2  2U4 A 901     -36.779  12.019  -0.499  1.00103.02           C  
HETATM 3934  C28 2U4 A 901     -34.809   9.105   1.945  1.00 86.77           C  
HETATM 3935  C24 2U4 A 901     -34.060   9.472   3.230  1.00 79.68           C  
HETATM 3936  C3  2U4 A 901     -36.989  11.444  -1.914  1.00110.81           C  
HETATM 3937  C16 2U4 A 901     -39.021  10.707   4.812  1.00104.08           C  
HETATM 3938  N9  2U4 A 901     -35.626  11.512   8.689  1.00 76.68           N  
HETATM 3939  N14 2U4 A 901     -37.032  10.625   6.318  1.00 93.36           N  
HETATM 3940  N26 2U4 A 901     -34.874  11.161   0.811  1.00 94.23           N  
HETATM 3941  N34 2U4 A 901     -38.375  11.473  -2.423  1.00118.51           N  
HETATM 3942  N11 2U4 A 901     -35.397  12.575  10.785  1.00 76.14           N  
HETATM 3943  N23 2U4 A 901     -34.912  10.120   4.218  1.00 79.90           N  
HETATM 3944  O31 2U4 A 901     -34.415  14.076  -0.628  1.00 90.91           O  
HETATM 3945  O33 2U4 A 901     -36.483   9.206  -1.255  1.00114.79           O  
HETATM 3946  O20 2U4 A 901     -40.045   9.396   6.519  1.00110.77           O  
HETATM 3947  O37 2U4 A 901     -38.150  13.240  -3.897  1.00125.22           O  
HETATM 3948  O38 2U4 A 901     -39.343   9.732  -1.220  1.00120.25           O  
HETATM 3949  O29 2U4 A 901     -33.056  11.604   3.244  1.00 72.10           O  
HETATM 3950  O22 2U4 A 901     -34.318   8.696   5.846  1.00 87.70           O  
HETATM 3951  O32 2U4 A 901     -33.196  12.362  -0.920  1.00 90.66           O  
HETATM 3952  O5  2U4 A 901     -36.144   9.759  -3.291  1.00112.17           O  
HETATM 3953  O21 2U4 A 901     -41.022  11.229   6.074  1.00109.17           O  
HETATM 3954  O45 2U4 A 901     -43.325  12.587  -5.554  1.00120.21           O  
HETATM 3955  O46 2U4 A 901     -44.079  10.514  -3.870  1.00121.83           O  
HETATM 3956  O27 2U4 A 901     -35.629  10.182   1.488  1.00 92.02           O  
HETATM 3957  O15 2U4 A 901     -37.753  10.105   5.189  1.00100.47           O  
HETATM 3958  S6  2U4 A 901     -33.188  11.721   9.286  1.00 69.31           S  
HETATM 3959  O   HOH A1001     -31.070   9.281   5.101  1.00 78.62           O  
HETATM 3960  O   HOH A1002     -35.426  15.114  -2.917  1.00 66.99           O  
CONECT 1742 3924                                                                
CONECT 3913 3916 3918                                                           
CONECT 3914 3917 3919                                                           
CONECT 3915 3920 3958                                                           
CONECT 3916 3913 3917 3922                                                      
CONECT 3917 3914 3916 3923                                                      
CONECT 3918 3913 3919 3954                                                      
CONECT 3919 3914 3918 3955                                                      
CONECT 3920 3915 3925 3938                                                      
CONECT 3921 3938 3942 3958                                                      
CONECT 3922 3916 3941 3947                                                      
CONECT 3923 3917 3941 3948                                                      
CONECT 3924 1742 3935 3949                                                      
CONECT 3925 3920 3927 3939                                                      
CONECT 3926 3928 3933 3940                                                      
CONECT 3927 3925 3943 3950                                                      
CONECT 3928 3926 3944 3951                                                      
CONECT 3929 3936 3945 3952                                                      
CONECT 3930 3937 3946 3953                                                      
CONECT 3931 3937                                                                
CONECT 3932 3937                                                                
CONECT 3933 3926 3936                                                           
CONECT 3934 3935 3956                                                           
CONECT 3935 3924 3934 3943                                                      
CONECT 3936 3929 3933 3941                                                      
CONECT 3937 3930 3931 3932 3957                                                 
CONECT 3938 3920 3921                                                           
CONECT 3939 3925 3957                                                           
CONECT 3940 3926 3956                                                           
CONECT 3941 3922 3923 3936                                                      
CONECT 3942 3921                                                                
CONECT 3943 3927 3935                                                           
CONECT 3944 3928                                                                
CONECT 3945 3929                                                                
CONECT 3946 3930                                                                
CONECT 3947 3922                                                                
CONECT 3948 3923                                                                
CONECT 3949 3924                                                                
CONECT 3950 3927                                                                
CONECT 3951 3928                                                                
CONECT 3952 3929                                                                
CONECT 3953 3930                                                                
CONECT 3954 3918                                                                
CONECT 3955 3919                                                                
CONECT 3956 3934 3940                                                           
CONECT 3957 3937 3939                                                           
CONECT 3958 3915 3921                                                           
MASTER      613    0    1   18   22    0    4    6 3959    1   47   62 