HETATM 8086  C8  F86 P  13      84.406  88.615 108.224  1.00 49.44           C  
HETATM 8087  C5  F86 P  13      85.424  90.389 109.671  1.00 49.44           C  
HETATM 8088  C6  F86 P  13      87.195  87.146 111.783  1.00 49.44           C  
HETATM 8089  N1  F86 P  13      85.009  91.489 108.950  1.00 49.44           N  
HETATM 8090  C2  F86 P  13      86.892  88.810 108.437  1.00 49.44           C  
HETATM 8091  N3  F86 P  13      83.550  88.345 107.533  1.00 49.44           N  
HETATM 8092  C4  F86 P  13      86.842  87.394 110.338  1.00 49.44           C  
HETATM 8093  O2  F86 P  13      86.742  87.814 107.437  1.00 49.44           O  
HETATM 8094  N2  F86 P  13      84.613  91.591 107.617  1.00 49.44           N  
HETATM 8095  O4  F86 P  13      87.179  88.349 112.537  1.00 49.44           O  
HETATM 8096  N4  F86 P  13      84.251  93.884 107.904  1.00 49.44           N  
HETATM 8097  C7  F86 P  13      85.704  90.816 110.947  1.00 49.44           C  
HETATM 8098  O6  F86 P  13      87.700  89.753 114.556  1.00 49.44           O1-
HETATM 8099  C1  F86 P  13      85.557  88.966 109.164  1.00 49.44           C  
HETATM 8100  C10 F86 P  13      85.458  92.156 110.995  1.00 49.44           C  
HETATM 8101  C11 F86 P  13      84.630  93.789 109.181  1.00 49.44           C  
HETATM 8102  C12 F86 P  13      84.241  92.780 107.116  1.00 49.44           C  
HETATM 8103  C3  F86 P  13      87.781  88.307 109.565  1.00 49.44           C  
HETATM 8104  C9  F86 P  13      85.018  92.552 109.705  1.00 49.44           C  
HETATM 8105  N5  F86 P  13      84.644  94.965 110.031  1.00 49.44           N  
HETATM 8106  O1  F86 P  13      85.558  88.065 110.253  1.00 49.44           O  
HETATM 8107  O3  F86 P  13      88.955  87.654 109.116  1.00 49.44           O  
HETATM 8108  O5  F86 P  13      88.456  87.256 114.392  1.00 49.44           O  
HETATM 8109  P1  F86 P  13      87.437  88.335 114.110  1.00 49.44           P  